% Model:              grating_duty_param_sweep_nonstruct.mph
% Version:            COMSOL 5.3.1.180
% Date:               Sep 6 2018, 01:42
% Table:              Accumulated Probe Table 4 - 
% grating_period (m)     freq                     sqrt(emw.S11*conj(emw.S11)) (1), S11Electric field norm (V/m), normE
2.5E-4                   1.0E11                   3.454300045583285E-6     1736.0445037281934
2.5E-4                   1.05E11                  3.454259411389458E-6     1736.0432645467433
2.5E-4                   1.1E11                   3.4542066772115616E-6    1736.0419757515233
2.5E-4                   1.15E11                  3.4541442049186343E-6    1736.0406972197081
2.5E-4                   1.2E11                   3.454078136996945E-6     1736.0394882784642
2.5E-4                   1.25E11                  3.4540200203987345E-6    1736.0384050558848
2.5E-4                   1.3E11                   3.453977857513788E-6     1736.0374978367004
2.5E-4                   1.35E11                  3.45396294038358E-6      1736.0368087172187
2.5E-4                   1.4E11                   3.453981841580615E-6     1736.0363696928252
2.5E-4                   1.45E11                  3.454034371547835E-6     1736.0362287150926
2.5E-4                   1.5E11                   3.4541147594770536E-6    1736.0365015525188
2.5E-4                   1.55E11                  3.45420895696342E-6      1736.0370490199268
2.5E-4                   1.6E11                   3.4542940871671886E-6    1736.0378447209482
2.5E-4                   1.65E11                  3.45434342739617E-6      1736.0388502427559
2.5E-4                   1.7E11                   3.4543280227974403E-6    1736.0400170780485
2.5E-4                   1.75E11                  3.4542233962165284E-6    1736.0412889329286
2.5E-4                   1.8E11                   3.4540148501331254E-6    1736.0426044484066
2.5E-4                   1.85E11                  3.4537017338338225E-6    1736.0439001489822
2.5E-4                   1.9E11                   3.4533015882371145E-6    1736.0451135359974
2.5E-4                   1.95E11                  3.4528505815645354E-6    1736.0461860683756
2.5E-4                   2.0E11                   3.4524009312982516E-6    1736.0470660124731
2.5E-4                   2.05E11                  3.4520142590848302E-6    1736.0477109144476
2.5E-4                   2.1E11                   3.451752481655962E-6     1736.0480896875647
2.5E-4                   2.15E11                  3.451668227720308E-6     1736.0481844829067
2.5E-4                   2.2E11                   3.451790714703038E-6     1736.0481716662432
2.5E-4                   2.25E11                  3.452118469860446E-6     1736.0479380211516
2.5E-4                   2.3E11                   3.452612365494423E-6     1736.0474377184782
2.5E-4                   2.35E11                  3.4531964694282082E-6    1736.0466939864723
2.5E-4                   2.4E11                   3.4537635097505474E-6    1736.0457413679958
2.5E-4                   2.45E11                  3.454188513614494E-6     1736.044624087239
2.5E-4                   2.5E11                   3.4543466698752585E-6    1736.0433940330113
2.5E-4                   2.55E11                  3.4541338806403588E-6    1736.0421083008096
2.5E-4                   2.6E11                   3.4534889758668145E-6    1736.0408265708056
2.5E-4                   2.65E11                  3.45240885431791E-6      1736.0396083369303
2.5E-4                   2.7E11                   3.450960664841581E-6     1736.0385101302054
2.5E-4                   2.75E11                  3.4492793779840183E-6    1736.0375829015065
2.5E-4                   2.8E11                   3.4475571005027425E-6    1736.0368696461699
2.5E-4                   2.85E11                  3.4460199437695076E-6    1736.0364034282013
2.5E-4                   2.9E11                   3.4448954546327278E-6    1736.0363157518468
2.5E-4                   2.95E11                  3.4443752524850835E-6    1736.0367136020332
2.5E-4                   3.0E11                   3.4445781750382488E-6    1736.0373753742242
2.5E-4                   3.05E11                  3.4455210316498285E-6    1736.0382690541253
2.5E-4                   3.1E11                   3.447101106331383E-6     1736.0393514487125
2.5E-4                   3.15E11                  3.4490967735825518E-6    1736.040570262261
2.5E-4                   3.2E11                   3.4511881283362037E-6    1736.0418666276046
2.5E-4                   3.25E11                  3.452994994451002E-6     1736.0431779445591
2.5E-4                   3.3E11                   3.4541305292040682E-6    1736.0444409062272
2.5E-4                   3.35E11                  3.454260738601818E-6     1736.0455945537667
2.5E-4                   3.4E11                   3.453163968142637E-6     1736.046583221082
2.5E-4                   3.45E11                  3.4507790679923694E-6    1736.047359208543
2.5E-4                   3.5E11                   3.4472345350168816E-6    1736.0478851043347
2.5E-4                   3.55E11                  3.4428517850415707E-6    1736.0481355622294
2.5E-4                   3.6E11                   3.4381183154403112E-6    1736.0481536284422
2.5E-4                   3.65E11                  3.4336315173635604E-6    1736.0481443436108
2.5E-4                   3.7E11                   3.4300177122555973E-6    1736.0479386871593
2.5E-4                   3.75E11                  3.4278358757465814E-6    1736.0474655039445
2.5E-4                   3.8E11                   3.427480724111592E-6     1736.0467468143302
2.5E-4                   3.85E11                  3.4291012608796533E-6    1736.0458160342155
2.5E-4                   3.9E11                   3.4325501351323887E-6    1736.044716413208
2.5E-4                   3.95E11                  3.4373762513626163E-6    1736.043499026736
2.5E-4                   4.0E11                   3.4428652448229508E-6    1736.042220389283
2.5E-4                   4.05E11                  3.4481249784939518E-6    1736.0409398384609
2.5E-4                   4.1E11                   3.452206057109916E-6     1736.039716768142
2.5E-4                   4.15E11                  3.4542399835757747E-6    1736.0386078704107
2.5E-4                   4.2E11                   3.453577481744483E-6     1736.0376644968658
2.5E-4                   4.25E11                  3.449905171610896E-6     1736.036930285334
2.5E-4                   4.3E11                   3.4433252878346037E-6    1736.0364391252795
2.5E-4                   4.35E11                  3.434382481350512E-6     1736.036458496063
2.5E-4                   4.4E11                   3.4240285363136003E-6    1736.0369747886948
2.5E-4                   4.45E11                  3.4135217864835856E-6    1736.0377403948228
2.5E-4                   4.5E11                   3.4042674486577455E-6    1736.0387181065094
2.5E-4                   4.55E11                  3.397614455730005E-6     1736.0398604981458
2.5E-4                   4.6E11                   3.3946359633112742E-6    1736.041112222529
2.5E-4                   4.65E11                  3.395931497560158E-6     1736.04241269008
2.5E-4                   4.7E11                   3.401486684085926E-6     1736.0436990000842
2.5E-4                   4.75E11                  3.4106231868959297E-6    1736.0449089818399
2.5E-4                   4.8E11                   3.4220550287799553E-6    1736.045984190884
2.5E-4                   4.85E11                  3.4340436058012933E-6    1736.0468727390767
2.5E-4                   4.9E11                   3.4446316327124187E-6    1736.0475317816865
2.5E-4                   4.95E11                  3.4519172931912015E-6    1736.0479295992034
2.5E-4                   5.0E11                   3.4543327008319457E-6    1736.0480470987836
2.5E-4                   5.05E11                  3.4508890037785257E-6    1736.0480402230614
2.5E-4                   5.1E11                   3.4413587086234475E-6    1736.0480334944534
2.5E-4                   5.15E11                  3.426372148502703E-6     1736.0478547866917
2.5E-4                   5.2E11                   3.40740726740142E-6      1736.047409764024
2.5E-4                   5.25E11                  3.386661699032381E-6     1736.0467192319422
2.5E-4                   5.3E11                   3.3668026288995976E-6    1736.0458153792056
2.5E-4                   5.35E11                  3.3506088345589577E-6    1736.0447402681402
2.5E-4                   5.4E11                   3.340543247353088E-6     1736.0435438671716
2.5E-4                   5.45E11                  3.338321746262452E-6     1736.042281718069
2.5E-4                   5.5E11                   3.3445635781695548E-6    1736.0410123491993
2.5E-4                   5.55E11                  3.3586059885758486E-6    1736.0397945447937
2.5E-4                   5.6E11                   3.378533105436025E-6     1736.0386846123447
2.5E-4                   5.65E11                  3.401419167194762E-6     1736.0377337657449
2.5E-4                   5.7E11                   3.4237369037452E-6       1736.0369857490934
2.5E-4                   5.75E11                  3.4418542249355348E-6    1736.0364748119916
2.5E-4                   5.8E11                   3.4525392168690693E-6    1736.0366503607024
2.5E-4                   5.85E11                  3.4534120335599516E-6    1736.0372723334985
2.5E-4                   5.9E11                   3.4432990207607118E-6    1736.0381240307618
2.5E-4                   5.95E11                  3.4224626731856195E-6    1736.0391637526761
2.5E-4                   6.0E11                   3.392682917448409E-6     1736.040340777297
2.5E-4                   6.05E11                  3.35716560062495E-6      1736.0415978301571
2.5E-4                   6.1E11                   3.3202511622306232E-6    1736.0428738600476
2.5E-4                   6.15E11                  3.2869077905515857E-6    1736.0441069998324
2.5E-4                   6.2E11                   3.262026389396874E-6     1736.04523755824
2.5E-4                   6.25E11                  3.2495982430211833E-6    1736.0462108986173
2.5E-4                   6.3E11                   3.2519324568138366E-6    1736.046980080005
2.5E-4                   6.35E11                  3.2691113880057873E-6    1736.0475081021475
2.5E-4                   6.4E11                   3.2988507963659526E-6    1736.0477696839307
2.5E-4                   6.45E11                  3.3368125327518155E-6    1736.0477524581413
2.5E-4                   6.5E11                   3.377278350807278E-6     1736.0477663897034
2.5E-4                   6.55E11                  3.414009984637276E-6     1736.047764295041
2.5E-4                   6.6E11                   3.4411186824682527E-6    1736.0476109330796
2.5E-4                   6.65E11                  3.4538246128955207E-6    1736.0471962989172
2.5E-4                   6.7E11                   3.4490531450694236E-6    1736.0465399435825
2.5E-4                   6.75E11                  3.425853939264713E-6     1736.04567260826
2.5E-4                   6.8E11                   3.385640573640502E-6     1736.0446347650113
2.5E-4                   6.85E11                  3.332233559760914E-6     1736.0434747098932
2.5E-4                   6.9E11                   3.2716595842777026E-6    1736.042246293356
2.5E-4                   6.95E11                  3.2116318515483076E-6    1736.0410064025596
2.5E-4                   7.0E11                   3.1606363613127254E-6    1736.0398122987815
2.5E-4                   7.05E11                  3.1266232011405067E-6    1736.0387189538726
2.5E-4                   7.1E11                   3.1154747072020384E-6    1736.0377764930995
2.5E-4                   7.15E11                  3.1296393546326136E-6    1736.0370278748655
2.5E-4                   7.2E11                   3.1674117036499146E-6    1736.03650690827
2.5E-4                   7.25E11                  3.223149949029632E-6     1736.0368761076566
2.5E-4                   7.3E11                   3.288334099679284E-6     1736.0375810475448
2.5E-4                   7.35E11                  3.3530606136484603E-6    1736.0384899888318
2.5E-4                   7.4E11                   3.407537297579728E-6     1736.0395579592573
2.5E-4                   7.45E11                  3.443315867724067E-6     1736.040732436209
2.5E-4                   7.5E11                   3.4541943274467004E-6    1736.0419559111845
2.5E-4                   7.55E11                  3.436835549484173E-6     1736.043168692067
2.5E-4                   7.6E11                   3.391172456642334E-6     1736.0443117987143
2.5E-4                   7.65E11                  3.3206391869098752E-6    1736.045329817395
2.5E-4                   7.7E11                   3.2322091537037207E-6    1736.0461735694578
2.5E-4                   7.75E11                  3.1361331765203328E-6    1736.0468024726085
2.5E-4                   7.8E11                   3.0451691450280498E-6    1736.0471864729307
2.5E-4                   7.85E11                  2.973043593822682E-6     1736.0473074618913
2.5E-4                   7.9E11                   2.9320342428878654E-6    1736.0472458573784
2.5E-4                   7.95E11                  2.9300685404514672E-6    1736.0472342815713
2.5E-4                   8.0E11                   2.9683931107778422E-6    1736.0472369607955
2.5E-4                   8.05E11                  3.04099067812084E-6      1736.0471062755278
2.5E-4                   8.1E11                   3.136050273360999E-6     1736.0467255206197
2.5E-4                   8.15E11                  3.238652750499478E-6     1736.0461129208356
2.5E-4                   8.2E11                   3.3334831880175225E-6    1736.0452974026139
2.5E-4                   8.25E11                  3.4068745662495497E-6    1736.0443171966638
2.5E-4                   8.3E11                   3.4480987575133694E-6    1736.0432180138725
2.5E-4                   8.35E11                  3.4501204761332903E-6    1736.0420508779416
2.5E-4                   8.4E11                   3.410058199532215E-6     1736.0408697197272
2.5E-4                   8.45E11                  3.329517489879377E-6     1736.039728846826
2.5E-4                   8.5E11                   3.2148720640253583E-6    1736.0386804071295
2.5E-4                   8.55E11                  3.077458953436873E-6     1736.03777196527
2.5E-4                   8.6E11                   2.9334820369930856E-6    1736.0370443060742
2.5E-4                   8.65E11                  2.803122207559785E-6     1736.0365647956403
2.5E-4                   8.7E11                   2.708046214681943E-6     1736.0371061095354
2.5E-4                   8.75E11                  2.666739429663499E-6     1736.0378568966094
2.5E-4                   8.8E11                   2.6886734586440553E-6    1736.0387789462918
2.5E-4                   8.85E11                  2.77050961537764E-6      1736.0398259647097
2.5E-4                   8.9E11                   2.897143554879977E-6     1736.040945875089
2.5E-4                   8.95E11                  3.04666653507064E-6      1736.0420833678502
2.5E-4                   9.0E11                   3.1958165157355294E-6    1736.043182611529
2.5E-4                   9.05E11                  3.323663280572531E-6     1736.0441899604987
2.5E-4                   9.1E11                   3.4134146709929592E-6    1736.045056545952
2.5E-4                   9.15E11                  3.453109786508725E-6     1736.0457406189032
2.5E-4                   9.2E11                   3.435870916631475E-6     1736.0462095282328
2.5E-4                   9.25E11                  3.3600835301410932E-6    1736.046441248297
2.5E-4                   9.3E11                   3.2296860575515035E-6    1736.0464253757839
2.5E-4                   9.35E11                  3.054662102412848E-6     1736.0463920422048
2.5E-4                   9.4E11                   2.8517540388249693E-6    1736.0463223341228
2.5E-4                   9.45E11                  2.6451545415950125E-6    1736.046326700716
2.5E-4                   9.5E11                   2.466160670536085E-6     1736.0462141346693
2.5E-4                   9.55E11                  2.34934563599437E-6      1736.0458717918552
2.5E-4                   9.6E11                   2.322619928225633E-6     1736.0453164676483
2.5E-4                   9.65E11                  2.3942452140633955E-6    1736.0445747436602
2.5E-4                   9.7E11                   2.547957974658009E-6     1736.0436816659162
2.5E-4                   9.75E11                  2.751453215549939E-6     1736.0426790392069
2.5E-4                   9.8E11                   2.969025545559453E-6     1736.0416134122047
2.5E-4                   9.85E11                  3.1692968886735174E-6    1736.0405338597113
2.5E-4                   9.9E11                   3.3276532829537287E-6    1736.0394896610164
2.5E-4                   9.95E11                  3.426271162494935E-6     1736.0385279909542
2.5E-4                   1.0E12                   3.453611980284052E-6     1736.0376917278943
2.55E-4                  1.0E11                   3.4543011535861023E-6    1718.9405397371731
2.55E-4                  1.05E11                  3.4542625146062302E-6    1718.9393560251497
2.55E-4                  1.1E11                   3.4542097424065007E-6    1718.9381074000432
2.55E-4                  1.15E11                  3.4541489716821774E-6    1718.936850079983
2.55E-4                  1.2E11                   3.45408518090627E-6      1718.9356408013568
2.55E-4                  1.25E11                  3.4540281961852314E-6    1718.9345340674092
2.55E-4                  1.3E11                   3.453987612819371E-6     1718.9335797733565
2.55E-4                  1.35E11                  3.453973376238332E-6     1718.9328209315988
2.55E-4                  1.4E11                   3.453991117350332E-6     1718.9322917614923
2.55E-4                  1.45E11                  3.454042153527027E-6     1718.9320161063806
2.55E-4                  1.5E11                   3.4541204800159143E-6    1718.9321263796792
2.55E-4                  1.55E11                  3.454211796171344E-6     1718.932546375089
2.55E-4                  1.6E11                   3.454294447277977E-6     1718.9332179617393
2.55E-4                  1.65E11                  3.4543414550634206E-6    1718.9341096628343
2.55E-4                  1.7E11                   3.454325392105262E-6     1718.9351796522392
2.55E-4                  1.75E11                  3.4542220887263955E-6    1718.936377768068
2.55E-4                  1.8E11                   3.4540171082735413E-6    1718.937647847417
2.55E-4                  1.85E11                  3.4537101987225517E-6    1718.9389303314576
2.55E-4                  1.9E11                   3.453318439837408E-6     1718.9401651115884
2.55E-4                  1.95E11                  3.4528770166278734E-6    1718.941294296698
2.55E-4                  2.0E11                   3.4524369347057518E-6    1718.942264949907
2.55E-4                  2.05E11                  3.452058049334669E-6     1718.9430315743161
2.55E-4                  2.1E11                   3.4518017424795493E-6    1718.9435582378878
2.55E-4                  2.15E11                  3.4517182609327502E-6    1718.9438202633562
2.55E-4                  2.2E11                   3.4518371578829206E-6    1718.9438455892987
2.55E-4                  2.25E11                  3.4521560861114893E-6    1718.9437824604936
2.55E-4                  2.3E11                   3.452638255333528E-6     1718.9434648765039
2.55E-4                  2.35E11                  3.4532087381359064E-6    1718.9428969622509
2.55E-4                  2.4E11                   3.4537635834225814E-6    1718.942104340675
2.55E-4                  2.45E11                  3.454180662884404E-6     1718.9411227565497
2.55E-4                  2.5E11                   3.45433802252807E-6      1718.9399964760048
2.55E-4                  2.55E11                  3.4541345982450763E-6    1718.9387762796155
2.55E-4                  2.6E11                   3.453509746781076E-6     1718.937517187046
2.55E-4                  2.65E11                  3.452461218593726E-6     1718.9362759550886
2.55E-4                  2.7E11                   3.4510530414495713E-6    1718.935108529815
2.55E-4                  2.75E11                  3.449416662400898E-6     1718.9340675291037
2.55E-4                  2.8E11                   3.4477391841370778E-6    1718.9331998456694
2.55E-4                  2.85E11                  3.446240147539156E-6     1718.9325445543718
2.55E-4                  2.9E11                   3.445140921796886E-6     1718.932131148714
2.55E-4                  2.95E11                  3.444628206447116E-6     1718.9321362115486
2.55E-4                  3.0E11                   3.444817605805043E-6     1718.9325646689995
2.55E-4                  3.05E11                  3.4457254919690063E-6    1718.9332433637176
2.55E-4                  3.1E11                   3.4472518787560126E-6    1718.9341403983922
2.55E-4                  3.15E11                  3.4491813108112747E-6    1718.9352136372654
2.55E-4                  3.2E11                   3.451202407690367E-6     1718.9364126913883
2.55E-4                  3.25E11                  3.452945669153192E-6     1718.93768128246
2.55E-4                  3.3E11                   3.4540347914520073E-6    1718.9389598817093
2.55E-4                  3.35E11                  3.4541451748018804E-6    1718.9401885072455
2.55E-4                  3.4E11                   3.453061925642919E-6     1718.941309529577
2.55E-4                  3.45E11                  3.4507260782783615E-6    1718.9422703803132
2.55E-4                  3.5E11                   3.447264155730341E-6     1718.9430260213735
2.55E-4                  3.55E11                  3.442989786375235E-6     1718.9435410424219
2.55E-4                  3.6E11                   3.438378900499148E-6     1718.9437913294598
2.55E-4                  3.65E11                  3.4340139196328923E-6    1718.9438110317637
2.55E-4                  3.7E11                   3.4305050883446025E-6    1718.9438073603212
2.55E-4                  3.75E11                  3.428396506355152E-6     1718.943629402727
2.55E-4                  3.8E11                   3.428072341342977E-6     1718.943192861303
2.55E-4                  3.85E11                  3.4296766091424258E-6    1718.9425174720664
2.55E-4                  3.9E11                   3.4330647949951326E-6    1718.9416337327527
2.55E-4                  3.95E11                  3.4377957723007025E-6    1718.940581535406
2.55E-4                  4.0E11                   3.443171918905176E-6     1718.9394083414993
2.55E-4                  4.05E11                  3.4483221305444204E-6    1718.938167055509
2.55E-4                  4.1E11                   3.452319235293219E-6     1718.93691362464
2.55E-4                  4.15E11                  3.4543150350444384E-6    1718.935704513974
2.55E-4                  4.2E11                   3.4536747445212195E-6    1718.9345941570468
2.55E-4                  4.25E11                  3.4500915529054728E-6    1718.9336325028441
2.55E-4                  4.3E11                   3.443664047997761E-6     1718.9328627580735
2.55E-4                  4.35E11                  3.434922285814774E-6     1718.9323194452159
2.55E-4                  4.4E11                   3.424793648177065E-6     1718.932145564696
2.55E-4                  4.45E11                  3.414504646152407E-6     1718.9325804367577
2.55E-4                  4.5E11                   3.4054254087718015E-6    1718.9332628879683
2.55E-4                  4.55E11                  3.398871379939281E-6     1718.934160653272
2.55E-4                  4.6E11                   3.3958907509366724E-6    1718.935231386633
2.55E-4                  4.65E11                  3.3970704528794633E-6    1718.9364246503828
2.55E-4                  4.7E11                   3.402400745255552E-6     1718.937684295321
2.55E-4                  4.75E11                  3.411226071440486E-6     1718.9389510945325
2.55E-4                  4.8E11                   3.422298084292515E-6     1718.9401655286276
2.55E-4                  4.85E11                  3.4339272988457353E-6    1718.941270578707
2.55E-4                  4.9E11                   3.444209739359478E-6     1718.9422144025687
2.55E-4                  4.95E11                  3.4512943665778785E-6    1718.9429527603895
2.55E-4                  5.0E11                   3.45365438710829E-6      1718.9434510903839
2.55E-4                  5.05E11                  3.4503266830015756E-6    1718.9436861185454
2.55E-4                  5.1E11                   3.441090333882937E-6     1718.9436817936337
2.55E-4                  5.15E11                  3.4265597684483283E-6    1718.943675258605
2.55E-4                  5.2E11                   3.408174754549486E-6     1718.943636408981
2.55E-4                  5.25E11                  3.3880743637649966E-6    1718.9433359064587
2.55E-4                  5.3E11                   3.368852580852271E-6     1718.942787444697
2.55E-4                  5.35E11                  3.353208908895529E-6     1718.9420158900762
2.55E-4                  5.4E11                   3.3435328915459735E-6    1718.9410561478157
2.55E-4                  5.45E11                  3.3414856250132996E-6    1718.9399515724585
2.55E-4                  5.5E11                   3.347661475259167E-6     1718.9387520021562
2.55E-4                  5.55E11                  3.361408708007348E-6     1718.9375114961774
2.55E-4                  5.6E11                   3.380857158369561E-6     1718.936285889632
2.55E-4                  5.65E11                  3.403154422394448E-6     1718.9351302693674
2.55E-4                  5.7E11                   3.424861985229155E-6     1718.9340964833623
2.55E-4                  5.75E11                  3.442438325279534E-6     1718.9332308037356
2.55E-4                  5.8E11                   3.452731875115194E-6     1718.9325718430719
2.55E-4                  5.85E11                  3.4534224838537243E-6    1718.932153210049
2.55E-4                  5.9E11                   3.4433684685856584E-6    1718.932589974633
2.55E-4                  5.95E11                  3.4228320209791584E-6    1718.9332689892458
2.55E-4                  6.0E11                   3.3935580367836196E-6    1718.934157795787
2.55E-4                  6.05E11                  3.3586834999450458E-6    1718.9352141349996
2.55E-4                  6.1E11                   3.322451465574845E-6     1718.9363879495822
2.55E-4                  6.15E11                  3.2897145676790426E-6    1718.9376237450022
2.55E-4                  6.2E11                   3.2652479315856487E-6    1718.9388632088633
2.55E-4                  6.25E11                  3.252949176881118E-6     1718.940047955375
2.55E-4                  6.3E11                   3.2550784193833207E-6    1718.9411222660672
2.55E-4                  6.35E11                  3.2717294091615667E-6    1718.9420357072552
2.55E-4                  6.4E11                   3.3006908454559127E-6    1718.9427454871632
2.55E-4                  6.45E11                  3.3377462085637552E-6    1718.9432184542816
2.55E-4                  6.5E11                   3.3773258248095025E-6    1718.943432632814
2.55E-4                  6.55E11                  3.4133425295496693E-6    1718.943386356767
2.55E-4                  6.6E11                   3.4400412647339103E-6    1718.9434041782833
2.55E-4                  6.65E11                  3.4527444217412683E-6    1718.943409623764
2.55E-4                  6.7E11                   3.4484383449380725E-6    1718.9432451556129
2.55E-4                  6.75E11                  3.4261854317230147E-6    1718.942830485448
2.55E-4                  6.8E11                   3.3873582295322373E-6    1718.9421846088248
2.55E-4                  6.85E11                  3.335677163910963E-6     1718.9413369113036
2.55E-4                  6.9E11                   3.27700731342287E-6      1718.940325814418
2.55E-4                  6.95E11                  3.21884337471837E-6      1718.9391970211052
2.55E-4                  7.0E11                   3.169415088627734E-6     1718.938001423586
2.55E-4                  7.05E11                  3.136417903823934E-6     1718.936792791682
2.55E-4                  7.1E11                   3.1255379782224663E-6    1718.9356253326362
2.55E-4                  7.15E11                  3.1391425449127524E-6    1718.9345512369957
2.55E-4                  7.2E11                   3.175588547414147E-6     1718.9336183220514
2.55E-4                  7.25E11                  3.2294249495085253E-6    1718.9328678808677
2.55E-4                  7.3E11                   3.29240064927133E-6      1718.9323328319751
2.55E-4                  7.35E11                  3.3549003329401636E-6    1718.9325875912639
2.55E-4                  7.4E11                   3.407394180546694E-6     1718.933250511143
2.55E-4                  7.45E11                  3.4416450011691913E-6    1718.9341135435063
2.55E-4                  7.5E11                   3.451601606336953E-6     1718.9351351099701
2.55E-4                  7.55E11                  3.434015610988704E-6     1718.9362663113873
2.55E-4                  7.6E11                   3.3888458967749993E-6    1718.937453255206
2.55E-4                  7.65E11                  3.3194871539525936E-6    1718.9386396050634
2.55E-4                  7.7E11                   3.2328009684073774E-6    1718.9397692420152