% Model:              grating_duty_param_sweep.mph
% Version:            COMSOL 5.3.1.180
% Date:               Sep 6 2018, 01:43
% Table:              Accumulated Probe Table 3 - 
% grating_period (m)     freq                     sqrt(emw.S11*conj(emw.S11)) (1), S11Electric field norm (V/m), normE
2.5E-4                   1.0E11                   0.8480083006468251       920.1470307917749
2.5E-4                   1.05E11                  0.8490171701878753       917.2856983693954
2.5E-4                   1.1E11                   0.8487296799572456       918.0993891020897
2.5E-4                   1.15E11                  0.8471371490480631       922.5788663494158
2.5E-4                   1.2E11                   0.8441913696730575       930.7424968307218
2.5E-4                   1.25E11                  0.8398020391094868       942.7003689012731
2.5E-4                   1.3E11                   0.8338319253988206       958.6123223522603
2.5E-4                   1.35E11                  0.8260894737145155       978.6877649247922
2.5E-4                   1.4E11                   0.8163184379024914       1003.1840562356706
2.5E-4                   1.45E11                  0.8041840323035371       1032.4019247138385
2.5E-4                   1.5E11                   0.7892550999370919       1066.6754215567967
2.5E-4                   1.55E11                  0.7709820055480059       1106.3524515176541
2.5E-4                   1.6E11                   0.748670622942395        1151.7597818307656
2.5E-4                   1.65E11                  0.7214543285263025       1203.1435346706976
2.5E-4                   1.7E11                   0.6882690608436022       1260.5728006773816
2.5E-4                   1.75E11                  0.6478423015204761       1323.791467194998
2.5E-4                   1.8E11                   0.5987163313417007       1392.005166416618
2.5E-4                   1.85E11                  0.5393391108336939       1463.6038761119096
2.5E-4                   1.9E11                   0.4682679156838543       1535.8580851250667
2.5E-4                   1.95E11                  0.3845267928857028       1604.6980050152476
2.5E-4                   2.0E11                   0.2881118057264409       1664.7782274170295
2.5E-4                   2.05E11                  0.18052444486452143      1710.07150853046
2.5E-4                   2.1E11                   0.0650661733710332       1735.0890548742743
2.5E-4                   2.15E11                  0.0534164385307215       1736.424003314738
2.5E-4                   2.2E11                   0.16941820769106744      1713.8953424969218
2.5E-4                   2.25E11                  0.27797687508745894      1670.6117737738996
2.5E-4                   2.3E11                   0.3756122277848729       1611.914815808425
2.5E-4                   2.35E11                  0.4606476707079345       1543.838940562279
2.5E-4                   2.4E11                   0.5329582483214856       1471.8358517734775
2.5E-4                   2.45E11                  0.5934469908071739       1400.1157927712056
2.5E-4                   2.5E11                   0.6435288536487103       1331.5389224722726
2.5E-4                   2.55E11                  0.6847566806566462       1267.8171747851331
2.5E-4                   2.6E11                   0.7186035442271766       1209.815754436696
2.5E-4                   2.65E11                  0.7463626590094113       1157.835643888774
2.5E-4                   2.7E11                   0.7691190572489603       1111.8335015245889
2.5E-4                   2.75E11                  0.7877582783492277       1071.5758707724956
2.5E-4                   2.8E11                   0.8029905335428571       1036.740076705857
2.5E-4                   2.85E11                  0.8153787109341009       1006.9767923406899
2.5E-4                   2.9E11                   0.8253647151586183       981.9469501770058
2.5E-4                   2.95E11                  0.8332919997040318       961.3423075961146
2.5E-4                   3.0E11                   0.8394238159570182       944.8960049570371
2.5E-4                   3.05E11                  0.8439574287912137       932.3872332908974
2.5E-4                   3.1E11                   0.8470347922561102       923.6425909170217
2.5E-4                   3.15E11                  0.848750193390846        918.5356837405931
2.5E-4                   3.2E11                   0.8491552871899493       916.9858452290119
2.5E-4                   3.25E11                  0.8482618231500496       919.8057215292047
2.5E-4                   3.3E11                   0.8460422297809825       926.5802412465443
2.5E-4                   3.35E11                  0.8424280862152469       937.2851315337912
2.5E-4                   3.4E11                   0.8373063694523285       952.0941480087122
2.5E-4                   3.45E11                  0.8305132185751251       971.2754992289093
2.5E-4                   3.5E11                   0.8218248005809624       995.1848444868023
2.5E-4                   3.55E11                  0.8109446964989666       1024.2848879888616
2.5E-4                   3.6E11                   0.7974870554018815       1059.1781553954038
2.5E-4                   3.65E11                  0.7809545851244178       1100.6673810799346
2.5E-4                   3.7E11                   0.7607101844805882       1149.8802417676031
2.5E-4                   3.75E11                  0.7359401846446757       1208.5618108451831
2.5E-4                   3.8E11                   0.7056031731065383       1279.8677753323987
2.5E-4                   3.85E11                  0.6683365697738693       1370.9701182542888
2.5E-4                   3.9E11                   0.6221438188607099       1504.6840185349722
2.5E-4                   3.95E11                  0.5617651745132772       1819.7600355721984
2.5E-4                   4.0E11                   0.5545504461739389       3205.989951657904
2.5E-4                   4.05E11                  0.4393741215031117       1898.8777322075796
2.5E-4                   4.1E11                   0.3457143231267256       1840.4797328924185
2.5E-4                   4.15E11                  0.24195201767860444      1848.6501527058233
2.5E-4                   4.2E11                   0.12887456966503574      1860.8569489847944
2.5E-4                   4.25E11                  0.010299029094572823     1859.2506294193831
2.5E-4                   4.3E11                   0.10861337504244072      1837.2608987504573
2.5E-4                   4.35E11                  0.22236301346235393      1794.4795434826985
2.5E-4                   4.4E11                   0.3266223427755998       1734.5264727890317
2.5E-4                   4.45E11                  0.4187697476902632       1663.0182702927216
2.5E-4                   4.5E11                   0.4979448378731086       1585.7709791707168
2.5E-4                   4.55E11                  0.5646148157113923       1507.6619753512123
2.5E-4                   4.6E11                   0.6200172592266329       1432.2075307046043
2.5E-4                   4.65E11                  0.6656977847074457       1361.6263372287287
2.5E-4                   4.7E11                   0.7032115424302526       1297.118223004047
2.5E-4                   4.75E11                  0.7339680548429324       1239.176435342261
2.5E-4                   4.8E11                   0.7591719248589454       1187.8504481244036
2.5E-4                   4.85E11                  0.7798170823883794       1142.938783456457
2.5E-4                   4.9E11                   0.7967060419686954       1104.1197713944644
2.5E-4                   4.95E11                  0.8104778091308443       1071.0368058104152
2.5E-4                   5.0E11                   0.8216362088879109       1043.3552373880595
2.5E-4                   5.05E11                  0.830575131241904        1020.8081749347823
2.5E-4                   5.1E11                   0.8375997177376653       1003.2560851039283
2.5E-4                   5.15E11                  0.8429439866647986       990.8245748862768
2.5E-4                   5.2E11                   0.8467873922124477       984.3941083724707
2.5E-4                   5.25E11                  0.8492834734031696       988.377013287888
2.5E-4                   5.3E11                   0.8507937793150042       1055.5849852100089
2.5E-4                   5.35E11                  0.8490511948858753       1077.7689332305506
2.5E-4                   5.4E11                   0.8481000268400153       969.0893964341902
2.5E-4                   5.45E11                  0.8453300390009268       976.6147426578875
2.5E-4                   5.5E11                   0.8410579760284925       991.1283222609319
2.5E-4                   5.55E11                  0.8351886794755121       1009.938264087749
2.5E-4                   5.6E11                   0.8275414502324756       1033.2088576661997
2.5E-4                   5.65E11                  0.8178631903982196       1061.2871407002349
2.5E-4                   5.7E11                   0.8058187736218142       1094.578415300388
2.5E-4                   5.75E11                  0.7909739142241935       1133.5271890935337
2.5E-4                   5.8E11                   0.7727725778402793       1178.600624373876
2.5E-4                   5.85E11                  0.7505097450635039       1230.2560551311747
2.5E-4                   5.9E11                   0.7233014766079338       1288.880929993542
2.5E-4                   5.95E11                  0.6900573326732448       1354.6906360920293
2.5E-4                   6.0E11                   0.6494662091215929       1427.5659739649846
2.5E-4                   6.05E11                  0.6000167683653894       1506.8125645253442
2.5E-4                   6.1E11                   0.5400878853113372       1590.8380518337756
2.5E-4                   6.15E11                  0.4681581880787409       1676.7844829551889
2.5E-4                   6.2E11                   0.3831812020174848       1760.2376480052988
2.5E-4                   6.25E11                  0.2851235189025738       1835.2517867632187
2.5E-4                   6.3E11                   0.17554042072329937      1894.992736629532
2.5E-4                   6.35E11                  0.05791461045972631      1933.145189611031
2.5E-4                   6.4E11                   0.06282663368787764      1945.7507300952032
2.5E-4                   6.45E11                  0.18067143846224065      1932.6173417576058
2.5E-4                   6.5E11                   0.2906489350215335       1897.4709764589736
2.5E-4                   6.55E11                  0.38922807287690453      1846.7954651210848
2.5E-4                   6.6E11                   0.4748159089127741       1788.1427480042596
2.5E-4                   6.65E11                  0.5474414095236442       1728.8454851911101
2.5E-4                   6.7E11                   0.6081917323743519       1675.6420972518133
2.5E-4                   6.75E11                  0.6586914199408475       1635.3923184355417
2.5E-4                   6.8E11                   0.7007790399008654       1617.4140533885547
2.5E-4                   6.85E11                  0.7364707991497434       1640.2487124754855
2.5E-4                   6.9E11                   0.7685912995780602       1758.4654449505633
2.5E-4                   6.95E11                  0.8059825235205478       2260.7559078829677
2.5E-4                   7.0E11                   0.40268749487949196      14829.412947503466
2.5E-4                   7.05E11                  0.7821233380155355       1932.978638744223
2.5E-4                   7.1E11                   0.8076446408445556       1452.0078379165743
2.5E-4                   7.15E11                  0.82350977365783         1439.8288918154353
2.5E-4                   7.2E11                   0.8304709755907923       1070.2293496141829
2.5E-4                   7.25E11                  0.8382119865020377       1015.2059293127942
2.5E-4                   7.3E11                   0.8435549129446918       980.5274854823215
2.5E-4                   7.35E11                  0.8471263478121093       954.7513784127666
2.5E-4                   7.4E11                   0.8491577991841804       936.2246812484605
2.5E-4                   7.45E11                  0.8497622555944          924.0421714492138
2.5E-4                   7.5E11                   0.8489811837289025       930.2741198426096
2.5E-4                   7.55E11                  0.8467990758207399       944.733040306424
2.5E-4                   7.6E11                   0.8431466053970852       967.5894598697327
2.5E-4                   7.65E11                  0.837896792927478        998.3553349769628
2.5E-4                   7.7E11                   0.8308541302646425       1036.1215487143734
2.5E-4                   7.75E11                  0.8217330316419681       1083.2796718518025
2.5E-4                   7.8E11                   0.8101140286828743       1144.0260660401993
2.5E-4                   7.85E11                  0.7953378499823591       1227.120866546823
2.5E-4                   7.9E11                   0.7761565098508247       1356.0232252354685
2.5E-4                   7.95E11                  0.7487881533586538       1628.3475735589082
2.5E-4                   8.0E11                   0.6554487626081822       3761.246615639468
2.5E-4                   8.05E11                  0.7341935937695058       1927.4892492726672
2.5E-4                   8.1E11                   0.682445520871136        1656.4282896544505
2.5E-4                   8.15E11                  0.6322955135867279       1646.3615368510439
2.5E-4                   8.2E11                   0.5738384587769384       1693.7150314438834
2.5E-4                   8.25E11                  0.5038702818454872       1765.7659368939005
2.5E-4                   8.3E11                   0.42032727349980653      1856.768356770309
2.5E-4                   8.35E11                  0.3221419372333719       1950.708189976481
2.5E-4                   8.4E11                   0.20978043628067292      2040.6877942304127
2.5E-4                   8.45E11                  0.08584396187554509      2121.442896417001
2.5E-4                   8.5E11                   0.046193943233786575     2192.7449785552767
2.5E-4                   8.55E11                  0.17869150059353092      2268.842818502596
2.5E-4                   8.6E11                   0.30852382753922986      2372.048483750673
2.5E-4                   8.65E11                  0.43483750671638244      2579.8067210488157
2.5E-4                   8.7E11                   0.5689350821421332       3205.6975234385172
2.5E-4                   8.75E11                  0.793083899695848        6513.363439967752
2.5E-4                   8.8E11                   0.1339329119911326       8770.432820075608
2.5E-4                   8.85E11                  0.5189785365867943       3286.3223888958037
2.5E-4                   8.9E11                   0.6212456363743882       2274.0199407896503
2.5E-4                   8.95E11                  0.6805679909077665       1826.2768522829176
2.5E-4                   9.0E11                   0.7223695863242827       1579.9111437228687
2.5E-4                   9.05E11                  0.7541084696617129       1442.4516624862076
2.5E-4                   9.1E11                   0.7792269225389002       1370.8963292857493
2.5E-4                   9.15E11                  0.7999559894842824       1356.969583360317
2.5E-4                   9.2E11                   0.8189210529943624       1450.2624067373342
2.5E-4                   9.25E11                  0.8514552555961247       2294.853991041258
2.5E-4                   9.3E11                   0.8084098050660635       1933.8205927693307
2.5E-4                   9.35E11                  0.8307507525547583       1271.8167615401092
2.5E-4                   9.4E11                   0.8396342462941293       1127.1319235246303
2.5E-4                   9.45E11                  0.8450551460731958       1050.3967036456281
2.5E-4                   9.5E11                   0.8483621880282194       1000.0224052240546
2.5E-4                   9.55E11                  0.8499808060218115       963.869560251155
2.5E-4                   9.6E11                   0.8500802462675401       936.8946672497774
2.5E-4                   9.65E11                  0.8487126263188713       930.7929303288707
2.5E-4                   9.7E11                   0.8458530136257064       946.290332220403
2.5E-4                   9.75E11                  0.8414104631785194       970.9978144456321
2.5E-4                   9.8E11                   0.8352264969377163       1001.4107627077071
2.5E-4                   9.85E11                  0.8270652391436284       1038.0989449221513
2.5E-4                   9.9E11                   0.8165953529592005       1082.1530172284847
2.5E-4                   9.95E11                  0.8033616388690962       1135.164522256783
2.5E-4                   1.0E12                   0.7867417227274749       1199.2721305678347
2.55E-4                  1.0E11                   0.8480127975402744       911.0767265907011
2.55E-4                  1.05E11                  0.8490185822342429       908.2466720632848
2.55E-4                  1.1E11                   0.8487277091113509       909.0631270671714
2.55E-4                  1.15E11                  0.8471313896983579       913.5150332439083
2.55E-4                  1.2E11                   0.8441812844408642       921.6163622184743
2.55E-4                  1.25E11                  0.8397869268102255       933.476394690567
2.55E-4                  1.3E11                   0.833810878720092        949.2537104854282
2.55E-4                  1.35E11                  0.8260613234835145       969.1560067493639
2.55E-4                  1.4E11                   0.816281680044935        993.4384931600025
2.55E-4                  1.45E11                  0.804136732876064        1022.399340929778
2.55E-4                  1.5E11                   0.7891947733115079       1056.3697076239714
2.55E-4                  1.55E11                  0.7709054617290256       1095.6944063115432
2.55E-4                  1.6E11                   0.7485737837460752       1140.697164502872
2.55E-4                  1.65E11                  0.7213320220049705       1191.6215444448692
2.55E-4                  1.7E11                   0.6881148242171771       1248.53525614571
2.55E-4                  1.75E11                  0.6476482627062966       1311.1830791325197
2.55E-4                  1.8E11                   0.5984733058035534       1378.7754315727223
2.55E-4                  1.85E11                  0.5390371416711582       1449.7132040115655
2.55E-4                  1.9E11                   0.4678975629731566       1521.2866610362692
2.55E-4                  1.95E11                  0.3840814310360583       1589.4573239829924
2.55E-4                  2.0E11                   0.2875908224830636       1648.9238723935111
2.55E-4                  2.05E11                  0.17993643593963335      1693.713524755356
2.55E-4                  2.1E11                   0.06443035103345958      1718.3941252172026
2.55E-4                  2.15E11                  0.054072451706200834     1719.6039281049163
2.55E-4                  2.2E11                   0.17006382340125972      1697.181262084536
2.55E-4                  2.25E11                  0.2785853897824352       1654.221403264555
2.55E-4                  2.3E11                   0.3761653337986904       1596.0244484017169
2.55E-4                  2.35E11                  0.46113652656910514      1528.5688396281107
2.55E-4                  2.4E11                   0.5333818013778051       1457.2499994456216
2.55E-4                  2.45E11                  0.5938092402114674       1386.231178844217
2.55E-4                  2.5E11                   0.6438363359607857       1318.3383646150648
2.55E-4                  2.55E11                  0.6850166965573602       1255.2614612372254
2.55E-4                  2.6E11                   0.7188231244042318       1197.8532202161937
2.55E-4                  2.65E11                  0.7465480690060285       1146.4088801866005
2.55E-4                  2.7E11                   0.7692756311496518       1100.8836361792494
2.55E-4                  2.75E11                  0.7878904263040671       1061.045047999006
2.55E-4                  2.8E11                   0.803101826659455        1026.5727020613222
2.55E-4                  2.85E11                  0.8154719899476184       997.1199704066952
2.55E-4                  2.9E11                   0.825442195941751        972.3504062441511
2.55E-4                  2.95E11                  0.8333553635732083       951.9579753335072
2.55E-4                  3.0E11                   0.8394742802929942       935.6773804649762
2.55E-4                  3.05E11                  0.843995796812186        923.2885347246421
2.55E-4                  3.1E11                   0.8470614817298272       914.6177125747075
2.55E-4                  3.15E11                  0.848765243629191        909.5368841138462
2.55E-4                  3.2E11                   0.8491583422395644       907.9620481819297
2.55E-4                  3.25E11                  0.848252086635598        910.8556786868421
2.55E-4                  3.3E11                   0.846018382897991        917.7269585112776
2.55E-4                  3.35E11                  0.8423881537620782       928.5491637812273
2.55E-4                  3.4E11                   0.8372475070977174       943.5109123527478
2.55E-4                  3.45E11                  0.8304313724831165       962.9138591130054
2.55E-4                  3.5E11                   0.8217141458737085       987.1683957628958
2.55E-4                  3.55E11                  0.8107966636830655       1016.8310404297164
2.55E-4                  3.6E11                   0.7972885224696977       1052.6741868036797
2.55E-4                  3.65E11                  0.780684203661211        1095.83014389328
2.55E-4                  3.7E11                   0.7603299859082365       1148.127334039721
2.55E-4                  3.75E11                  0.7353731736412693       1213.004417332005
2.55E-4                  3.8E11                   0.7046587651591913       1298.5816646322464
2.55E-4                  3.85E11                  0.6663559064873926       1432.2836627528852
2.55E-4                  3.9E11                   0.6142226677473237       1816.4223358838067
2.55E-4                  3.95E11                  0.5936604940439195       2289.1330637920287
2.55E-4                  4.0E11                   0.5135299618896636       1759.482480566293
2.55E-4                  4.05E11                  0.43379873720840695      1738.7231134279666
2.55E-4                  4.1E11                   0.3425323475685617       1767.8475069195572
2.55E-4                  4.15E11                  0.23941549976185175      1802.3484437106438
2.55E-4                  4.2E11                   0.1265851738082724       1826.2300104262845
2.55E-4                  4.25E11                  0.008163963045557436     1831.0234059773034
2.55E-4                  4.3E11                   0.11062460517509465      1813.127759843232
2.55E-4                  4.35E11                  0.22421191650487254      1773.3192210452992
2.55E-4                  4.4E11                   0.32828381988361854      1715.7480010395388
2.55E-4                  4.45E11                  0.4202327102012243       1646.2769312636835
2.55E-4                  4.5E11                   0.49921388315070614      1570.836530159092
2.55E-4                  4.55E11                  0.5657059327076616       1494.3597055759199
2.55E-4                  4.6E11                   0.6209523063775205       1420.395217965571
2.55E-4                  4.65E11                  0.6665001344701502       1351.1878015983802
2.55E-4                  4.7E11                   0.70390345313112         1287.963860032131
2.55E-4                  4.75E11                  0.7345694655568431       1231.2467905591952
2.55E-4                  4.8E11                   0.7597001796110601       1181.1221085949821
2.55E-4                  4.85E11                  0.7802871905888548       1137.433873674825
2.55E-4                  4.9E11                   0.7971312514885828       1099.9223882861054
2.55E-4                  4.95E11                  0.8108704379522615       1068.3234717790447
2.55E-4                  5.0E11                   0.8220088818468869       1042.455579235614
2.55E-4                  5.05E11                  0.8309429542942203       1022.3380774412527
2.55E-4                  5.1E11                   0.8379850582732584       1008.4539118908175
2.55E-4                  5.15E11                  0.8433901134432414       1002.6056084513606
2.55E-4                  5.2E11                   0.8474146428964898       1012.1606197669363
2.55E-4                  5.25E11                  0.8507934041873292       1100.6047945715663
2.55E-4                  5.3E11                   0.8468926598679165       1262.2909477870894
2.55E-4                  5.35E11                  0.8490912323808014       935.1346221381639
2.55E-4                  5.4E11                   0.8478921725426558       941.0653370114796
2.55E-4                  5.45E11                  0.8451281125340014       955.1906970222491
2.55E-4                  5.5E11                   0.8408553290171781       972.8991175324481
2.55E-4                  5.55E11                  0.8349724223229784       993.60698316076
2.55E-4                  5.6E11                   0.8272995646971609       1018.166014038862
2.55E-4                  5.65E11                  0.8175836006478822       1047.1874319668746
2.55E-4                  5.7E11                   0.8054880771603935       1081.2083889183045
2.55E-4                  5.75E11                  0.7905761653205673       1120.750913572341
2.55E-4                  5.8E11                   0.7722880091573072       1166.3341344058267
2.55E-4                  5.85E11                  0.7499133190153547       1218.4547039254514
2.55E-4                  5.9E11                   0.7225612231440317       1277.533333536852
2.55E-4                  5.95E11                  0.6891325476896596       1343.8162022640888
2.55E-4                  6.0E11                   0.6483058132194467       1417.214224599091
2.55E-4                  6.05E11                  0.5985585341147014       1497.0628661574324
2.55E-4                  6.1E11                   0.5382598757260921       1581.7985945653452
2.55E-4                  6.15E11                  0.46588447059987914      1668.5900107208342
2.55E-4                  6.2E11                   0.3803940988997459       1753.047300573758
2.55E-4                  6.25E11                  0.28178304027674334      1829.2517349084433
2.55E-4                  6.3E11                   0.17165700007825113      1890.4113141147695
2.55E-4                  6.35E11                  0.05357071389877243      1930.2864827588107
2.55E-4                  6.4E11                   0.06752550750787897      1945.043591571252
2.55E-4                  6.45E11                  0.18554707322151553      1934.66875740138
2.55E-4                  6.5E11                   0.29555771126379116      1903.1214167359117
2.55E-4                  6.55E11                  0.3940774277930558       1857.2028169151138
2.55E-4                  6.6E11                   0.4795844003288879       1804.9595165158041
2.55E-4                  6.65E11                  0.5521876727556632       1754.610246023822
2.55E-4                  6.7E11                   0.613070400418075        1714.6574940923513
2.55E-4                  6.75E11                  0.664009380154887        1695.8747673513187
2.55E-4                  6.8E11                   0.707184379312924        1717.735044341201
2.55E-4                  6.85E11                  0.7456909800230247       1832.9242994164742
2.55E-4                  6.9E11                   0.7880733034057544       2287.1288926012553
2.55E-4                  6.95E11                  0.9998357520080132       14854.073733955307
2.55E-4                  7.0E11                   0.7556494600511124       2158.2052402748986
2.55E-4                  7.05E11                  0.791018149544193        1369.7265023029715
2.55E-4                  7.1E11                   0.8096792714264569       1232.1933940593863
2.55E-4                  7.15E11                  0.822424995966464        1125.4731974573126
2.55E-4                  7.2E11                   0.831843183938596        1054.908587276583
2.55E-4                  7.25E11                  0.8388616122001037       1005.3701140663168
2.55E-4                  7.3E11                   0.8439502815014408       969.5111970419794
2.55E-4                  7.35E11                  0.8473811090280929       943.7416724135443
2.55E-4                  7.4E11                   0.8493153083354561       925.9728796111098
2.55E-4                  7.45E11                  0.8498390571475855       914.6214426482768
2.55E-4                  7.5E11                   0.8489789263040848       921.6642596061805
2.55E-4                  7.55E11                  0.8467069350048431       937.2140831657327
2.55E-4                  7.6E11                   0.8429378913346096       962.9363670286641
2.55E-4                  7.65E11                  0.8375173140988054       998.8192613927876
2.55E-4                  7.7E11                   0.8301906913107031       1046.330561269654
2.55E-4                  7.75E11                  0.8205178500873304       1113.9889783793724